# vtk DataFile Version 2.0
File: 00000
ASCII
  
DATASET POLYDATA
POINTS      8 float
    1.000000    0.000000    1.000000
    1.000000    0.000000    0.000000
    1.000000    1.000000    0.000000
    1.000000    1.000000    1.000000
    0.000000    0.000000    1.000000
    0.000000    0.000000    0.000000
    0.000000    1.000000    0.000000
    0.000000    1.000000    1.000000
POLYGONS      6     30
      4
      0
      1
      2
      3
      4
      1
      0
      4
      5
      4
      2
      1
      5
      6
      4
      3
      2
      6
      7
      4
      0
      3
      7
      4
      4
      5
      4
      7
      6
POINT_DATA      8
SCALARS phi float 1
LOOKUP_TABLE default
    1.000000
   -1.000000
    1.000000
   -1.000000
   -1.000000
   -1.000000
   -1.000000
    1.000000
SCALARS node int 1
LOOKUP_TABLE default
      1
      2
      3
      4
      5
      6
      7
      8
